[Molden Format]
made by pyscf v[2.0.1]
[Atoms] (AU)
C   1   6    -2.85581081122646     4.84822465340039    -0.00848487029930
C   2   6    -2.97920992716056     2.21517475773766    -0.00017007535121
C   3   6    -4.63489347119824    -1.96234829953210    -0.09429733361580
H   4   1     1.34799833643600     0.99095348246067     0.34300418886980
H   5   1    -1.11970052332729     5.86145800686968    -0.11882597871265
H   6   1    -4.50574958784546     6.03232704305285     0.08116373705007
C   7   6    -5.37568500928899     0.57470350900273    -0.17153044032677
H   8   1    -0.55930224108752    -3.95661407330810     0.23564884773326
C   9   6    -1.70710299188709    -2.09366536792812     0.13239421228703
C   10   6    -0.74043249012708     0.36681473803932     0.18713957811568
H   11   1    -7.39933602430197     1.38327952318163    -0.33399019525563
H   12   1    -5.94611773725020    -3.71501258828245    -0.18114914630081
[GTO]
1 0
 s    3 1.00
             71.616837    0.15432897000916
             13.045096    0.53532814003178
             3.5305122     0.4446345400264
 s    3 1.00
             2.9412494  -0.099967230075964
             0.6834831    0.39951283030359
             0.2222899    0.70011547053201
 p    3 1.00
             2.9412494    0.15591627210511
             0.6834831    0.60768372820466
             0.2222899    0.39195739529202

2 0
 s    3 1.00
             71.616837    0.15432897000916
             13.045096    0.53532814003178
             3.5305122     0.4446345400264
 s    3 1.00
             2.9412494  -0.099967230075964
             0.6834831    0.39951283030359
             0.2222899    0.70011547053201
 p    3 1.00
             2.9412494    0.15591627210511
             0.6834831    0.60768372820466
             0.2222899    0.39195739529202

3 0
 s    3 1.00
             71.616837    0.15432897000916
             13.045096    0.53532814003178
             3.5305122     0.4446345400264
 s    3 1.00
             2.9412494  -0.099967230075964
             0.6834831    0.39951283030359
             0.2222899    0.70011547053201
 p    3 1.00
             2.9412494    0.15591627210511
             0.6834831    0.60768372820466
             0.2222899    0.39195739529202

4 0
 s    3 1.00
            3.42525091    0.15432897070298
            0.62391373    0.53532814243847
             0.1688554    0.44463454202535

5 0
 s    3 1.00
            3.42525091    0.15432897070298
            0.62391373    0.53532814243847
             0.1688554    0.44463454202535

6 0
 s    3 1.00
            3.42525091    0.15432897070298
            0.62391373    0.53532814243847
             0.1688554    0.44463454202535

7 0
 s    3 1.00
             71.616837    0.15432897000916
             13.045096    0.53532814003178
             3.5305122     0.4446345400264
 s    3 1.00
             2.9412494  -0.099967230075964
             0.6834831    0.39951283030359
             0.2222899    0.70011547053201
 p    3 1.00
             2.9412494    0.15591627210511
             0.6834831    0.60768372820466
             0.2222899    0.39195739529202

8 0
 s    3 1.00
            3.42525091    0.15432897070298
            0.62391373    0.53532814243847
             0.1688554    0.44463454202535

9 0
 s    3 1.00
             71.616837    0.15432897000916
             13.045096    0.53532814003178
             3.5305122     0.4446345400264
 s    3 1.00
             2.9412494  -0.099967230075964
             0.6834831    0.39951283030359
             0.2222899    0.70011547053201
 p    3 1.00
             2.9412494    0.15591627210511
             0.6834831    0.60768372820466
             0.2222899    0.39195739529202

10 0
 s    3 1.00
             71.616837    0.15432897000916
             13.045096    0.53532814003178
             3.5305122     0.4446345400264
 s    3 1.00
             2.9412494  -0.099967230075964
             0.6834831    0.39951283030359
             0.2222899    0.70011547053201
 p    3 1.00
             2.9412494    0.15591627210511
             0.6834831    0.60768372820466
             0.2222899    0.39195739529202

11 0
 s    3 1.00
            3.42525091    0.15432897070298
            0.62391373    0.53532814243847
             0.1688554    0.44463454202535

12 0
 s    3 1.00
            3.42525091    0.15432897070298
            0.62391373    0.53532814243847
             0.1688554    0.44463454202535

[5d]
[7f]
[9g]

[MO]
 Sym= A
 Ene=    -11.02606291
 Spin= Alpha
 Occup=    1.00000
   1      0.17363602654665
   2    -0.0011424584475957
   3    0.00054750254500667
   4     0.011050365339599
   5    -5.3047619182297e-05
   6      0.77847830347346
   7     0.030641015042224
   8    0.00020997539714051
   9    0.0038776154658631
  10    -4.6570010963994e-06
  11      0.30332883207719
  12    0.0088510812731929
  13    -0.0010928954823304
  14    -0.0011078915195343
  15    -7.6274584161503e-05
  16    -0.0048406219757016
  17    -0.0037490384465293
  18    -0.0036846037420234
  19      0.28903693785324
  20    0.0029191250552554
  21    -0.0069891746523712
  22    -0.002937786665572
  23    -0.00051377411420894
  24    -0.0048421369069006
  25      0.30189061144071
  26    0.0088011393223314
  27    0.0010152183827387
  28    -0.0011757224994054
  29    8.8976971926705e-05
  30      0.28675208570797
  31    0.0028278807582926
  32    0.0066917540484742
  33    -0.0035577032724688
  34    0.00054065198323605
  35    -0.0048768931845775
  36    -0.004867550733064
 Sym= A
 Ene=    -11.02032227
 Spin= Alpha
 Occup=    1.00000
   1    -0.073288326777237
   2    0.0040950018135842
   3    -0.00039546956580561
   4    -0.0078138658822008
   5    3.0904646179437e-05
   6     -0.58580598351004
   7    -0.033952595916902
   8    0.00023465758143867
   9    0.0031375176065054
  10    -1.5863569847762e-05
  11      0.40761741114759
  12     0.010429514126037
  13    -0.0041677607796086
  14    -0.0024925016582097
  15    -0.00029503735144079
  16    -0.006192554626849
  17    0.0017983094850992
  18    0.0017823704920152
  19      0.39704481111806
  20     0.019789426383156
  21    0.0058706406465441
  22    0.0077691688388023
  23    0.00040041648349516
  24    -0.0062999760240182
  25      0.40000427295552
  26     0.010129776764038
  27    0.0040563747911532
  28    -0.0027524012580462
  29    0.0003284659612778
  30       0.3873446161064
  31     0.019428540316081
  32    -0.0051740193988258
  33    0.0082005573053856
  34    -0.00047446533654682
  35    -0.0063459245311118
  36    -0.0064249013719356
 Sym= A
 Ene=    -11.01750288
 Spin= Alpha
 Occup=    1.00000
   1    -0.001226728095437
   2    -9.2197225510567e-06
   3    0.0015172307022384
   4    -0.00012077297820664
   5    -2.2672875767326e-05
   6    -0.0034803796185515
   7    -0.00020007693324963
   8     -0.01018925825282
   9    0.00048665530231173
  10    -0.00075288773676976
  11      -0.5147103375331
  12    -0.023069130632107
  13    -0.0073902500624712
  14    0.0047973616201456
  15    -0.0006119980055383
  16    -0.0077247950388585
  17    0.00047927196535818
  18    -0.0004392085738917
  19     -0.46784289430978
  20    -0.015291415178366
  21    0.0018930706140928
  22    -0.0050069904992545
  23    0.00020112852786479
  24    -0.0083658307792005
  25      0.52498983689624
  26      0.02339412883143
  27    -0.0076795175183204
  28    -0.0041314854789806
  29    -0.00056285331996918
  30      0.47355579594511
  31     0.015504328828994
  32     0.002288330003515
  33    0.0049861338414333
  34    0.00015106345679164
  35    0.0076256236933705
  36    0.0082074028108642
 Sym= A
 Ene=    -11.01027393
 Spin= Alpha
 Occup=    1.00000
   1     -0.39774679775427
   2    -0.021694175293298
   3    -4.7209194800241e-06
   4    0.00064682189662966
   5    3.2247788000714e-05
   6     0.066789577084479
   7     0.016439139519494
   8    -0.00030472999909596
   9    -0.0018463193081696
  10    1.4856952104195e-07
  11      0.46813788075821
  12     0.024839648115966
  13    -0.007734001614992
  14     0.008861744201091
  15    -0.00066638670647322
  16    0.0056823871941238
  17    0.0068857531048208
  18    0.0067315423453094
  19     -0.46385814586051
  20    -0.029495066971579
  21    -0.0023685104694093
  22    0.0089893747266216
  23    -0.00025691116098664
  24    -0.006029786950445
  25      0.43882194869384
  26     0.022748318202361
  27    0.0086139020489398
  28    0.0075488163064926
  29    0.00060271279882148
  30     -0.43632708232456
  31    -0.027748488327958
  32    0.0029379990756415
  33    0.0082305164359566
  34    0.00016717349907487
  35    0.0060463428447353
  36    -0.0064137064103385
 Sym= A
 Ene=    -11.00922551
 Spin= Alpha
 Occup=    1.00000
   1     0.012152358087545
   2    0.00067967753745284
   3       0.0017377686502
   4    -0.00011581321111733
   5    -2.4424982968014e-06
   6    -0.0025270114487761
   7    -0.00052174154742082
   8    -0.0091227638162014
   9    0.00045169246439507
  10    -0.00068886477794891
  11      0.45609454212437
  12     0.033891355901144
  13    0.0024873576992465
  14     0.010120596634631
  15    0.00010323330879826
  16    -0.0071337608007081
  17    0.00019434862131702
  18    -0.00061694100495354
  19     -0.50548252726963
  20    -0.031013764411967
  21    -0.0030860219065575
  22    0.0085124252004617
  23    -0.00029877026230585
  24     0.006165459147252
  25     -0.48027825584899
  26    -0.035197966478721
  27    0.0010938150001237
  28    -0.010754746781025
  29    0.0001624604454835
  30      0.53237353273523
  31     0.032693542029378
  32    -0.0040202970013111
  33    -0.0086588921551273
  34    -0.00023463630519504
  35    0.0067790565406108
  36    -0.0058372506896685
 Sym= A
 Ene=    -11.00098969
 Spin= Alpha
 Occup=    1.00000
   1     -0.88678994612259
   2    -0.051414396390819
   3    7.3765799308933e-05
   4    0.0054021992274452
   5     5.40385081311e-05
   6       0.1679761994934
   7     0.015053724260321
   8    0.0008706416213174
   9     0.018466881593493
  10    -6.0255590220035e-05
  11     -0.17725798107004
  12     -0.01007783959756
  13     0.003768810648696
  14    -0.0039614758568796
  15    0.00032304283685793
  16    -0.0034410724753622
  17     0.015671656291706
  18     0.015364668992878
  19      0.22554561943383
  20     0.012928968559603
  21    0.0014121121621195
  22    -0.0057224904285657
  23    0.00013906818748376
  24    0.0024385822674483
  25     -0.17803127494661
  26    -0.010135487681951
  27    -0.0041108625705969
  28    -0.0036264594027889
  29    -0.00028932032818943
  30      0.22647707367765
  31     0.012963662320176
  32    -0.0019142370452524
  33    -0.0055982014408813
  34    -8.3125280618893e-05
  35    -0.0034255999223461
  36    0.0024279872313628
 Sym= A
 Ene=    -1.348690314
 Spin= Alpha
 Occup=    1.00000
   1     0.083390878563806
   2     -0.22550649784784
   3    0.0016890332980827
   4     0.040901318214497
   5    0.00032040367385209
   6      0.11270092949678
   7     -0.29650088163629
   8    -0.00014767628354832
   9    -0.0031965272690243
  10    0.00010636005623792
  11     0.097753260781989
  12     -0.26111018121446
  13    -0.0016575510811497
  14    -0.019414047387161
  15    -0.00030636125569546
  16    -0.099416184778742
  17    -0.062740547613942
  18    -0.062211246724413
  19      0.10671410698908
  20     -0.28845119167101
  21    -0.011967173086393
  22    0.0051129121608706
  23    -0.0016406420681407
  24     -0.08477758480787
  25     0.097769287438496
  26     -0.26115707972125
  27    -0.0001248948330479
  28     -0.01951868199368
  29    0.00045943396295755
  30      0.10672989010484
  31     -0.28845842735245
  32     0.012315044607788
  33    0.0041099969853771
  34    0.0016555776730819
  35    -0.099374580668399
  36    -0.084785673856386
 Sym= A
 Ene=     -0.90507251
 Spin= Alpha
 Occup=    1.00000
   1      0.16345012286109
   2     -0.46062002083349
   3    -0.0040194561595955
   4    -0.045993768278781
   5    0.0014392064812789
   6     0.070287203212967
   7     -0.19458502669356
   8    -0.0041282889144306
   9    -0.089517354553634
  10    0.0007524240883783
  11    -0.097955312775028
  12      0.28483405021419
  13    -0.023166751824094
  14    -0.029341432699497
  15    -0.0015688830590677
  16    -0.026249233566315
  17     -0.18319777695711
  18     -0.17998043726497
  19    -0.013880856632947
  20     0.027776382096029
  21     0.006807368163421
  22    -0.093106164743042
  23    0.0012568953112848
  24      0.13387472465601
  25    -0.097624907673605
  26      0.28388209366521
  27     0.020014591843039
  28    -0.031686730829303
  29    0.0017840126044412
  30    -0.013355400774964
  31     0.026341732013163
  32    -0.015739833461272
  33    -0.091610532727892
  34    -0.00031700574470757
  35    -0.025371915093481
  36         0.13403760888
 Sym= A
 Ene=   -0.7736272337
 Spin= Alpha
 Occup=    1.00000
   1    0.00024750554859517
   2    -0.0010919603584385
   3      0.11326199204311
   4    -0.0041640642885454
   5    -0.0053312697517645
   6    0.00051438281685258
   7    -0.0014607974452025
   8     0.045979365526658
   9    -0.0030496581150338
  10    0.0020760377431895
  11     0.086639794462053
  12     -0.25337819890906
  13      0.10006364996992
  14    -0.057167284217312
  15    0.0074328909930085
  16      0.19776872972661
  17     0.089841558272516
  18    -0.089708760164327
  19      0.12589503831602
  20     -0.36783316431514
  21      0.10422591257425
  22      0.06051827336001
  23    0.0073395231836573
  24     0.095730206062083
  25    -0.087380233411358
  26       0.2555592340919
  27      0.10514255275988
  28     0.047103637689909
  29    0.0069910688152662
  30     -0.12575265725831
  31      0.36735571191146
  32     0.097920990868962
  33    -0.070124692570284
  34    0.0078858983747208
  35     -0.19841159313422
  36    -0.094099163897947
 Sym= A
 Ene=   -0.7002457601
 Spin= Alpha
 Occup=    1.00000
   1     0.025667715836261
   2    -0.077268076907615
   3     0.021994893092926
   4      0.43655608840732
   5    -0.0021671382310599
   6     0.011070374124811
   7     0.012290928307122
   8    -0.021262011003235
   9     -0.44936036421546
  10    0.0017681394994705
  11     0.011310669829746
  12    -0.043930064195927
  13    -0.014404612037099
  14     -0.22359517293538
  15    0.0010109709512454
  16    -0.016867972170298
  17      0.17897638514719
  18      0.17715978736537
  19    0.0015616115421924
  20     0.012666340974568
  21      0.11734092078122
  22      0.20753301985633
  23    0.0088687137816001
  24      0.17113965362842
  25     0.011879414543922
  26    -0.045634860257262
  27    -0.006437535432759
  28     -0.22394998390548
  29    0.00098519274083943
  30    0.0023337811744143
  31     0.010417626801576
  32    -0.097898231829128
  33       0.2170371165525
  34    -0.010689338598501
  35    -0.016338510661594
  36      0.17209709221898
 Sym= A
 Ene=   -0.6494359033
 Spin= Alpha
 Occup=    1.00000
   1    -3.2508119773171e-05
   2    5.3469746882956e-05
   3      0.02170546596226
   4    -0.0010812112816224
   5    0.00047980903797526
   6    6.4272830583354e-05
   7    -0.00024117961249033
   8    0.0097046132753988
   9    -0.0003504775477875
  10    2.3175776526807e-05
  11    -0.053505839548489
  12      0.15663209267216
  13     0.002526235076071
  14      0.31186647494143
  15    -0.0015888585863187
  16      0.25151982719658
  17    0.0088290496132026
  18    -0.0087967704984551
  19    -0.037743770495312
  20      0.10967905206821
  21      0.23432886588025
  22     -0.29445007491636
  23     0.020242766074001
  24      0.18470323179693
  25     0.053451850231953
  26     -0.15648704965286
  27    -0.025453053846158
  28     -0.31057208307626
  29    0.0012308613139343
  30     0.037745677367721
  31     -0.10970215648962
  32      0.25992686426486
  33      0.27190501327033
  34     0.017688801665315
  35     -0.25162235406779
  36      -0.1847575207982
 Sym= A
 Ene=   -0.5968064244
 Spin= Alpha
 Occup=    1.00000
   1    -0.027985635498488
   2     0.069077222688787
   3    -0.0061740624852379
   4     -0.13922730446467
   5    0.00064225120955582
   6    -0.0097896772396819
   7     0.022865748465906
   8     0.016032866378277
   9      0.18787830448188
  10    -0.00041400723666426
  11    -0.047852661034696
  12      0.19333303943049
  13       0.3623708507347
  14     -0.24395412368433
  15      0.02949962015443
  16     0.095453494037851
  17    -0.036223315255331
  18    -0.035255944980388
  19     0.070063466299086
  20     -0.21151833097311
  21     -0.10720021443773
  22      0.18021689752472
  23    -0.010131694245803
  24    0.0077537545020765
  25     -0.04729161596251
  26      0.19158406510138
  27     -0.38456568748676
  28     -0.21186949890407
  29    -0.027570155319023
  30     0.068379535795894
  31     -0.20566074840073
  32      0.11577520079526
  33      0.17784802730958
  34    0.0077517819511813
  35     0.098676727425064
  36    0.0069900301775512
 Sym= A
 Ene=   -0.5935613247
 Spin= Alpha
 Occup=    1.00000
   1     0.001030240741483
   2    -0.0030507637952295
   3     -0.11510524781927
   4     0.002560495451288
   5    -0.00091728232374007
   6    -0.0013393625967542
   7     0.004152288045881
   8      -0.5223488605334
   9     0.023798895413061
  10    -0.027728801254871
  11     0.027163105271335
  12    -0.083987761582204
  13     0.071964027629664
  14    -0.039104792481754
  15    0.0060617612895138
  16      0.12024785068484
  17    -0.031656470660099
  18     0.027078379595172
  19    -0.056416604125023
  20      0.19740946381515
  21      0.27849202676447
  22      0.25611339916917
  23     0.024719115351765
  24    -0.0026701813927333
  25    -0.026848451780809
  26      0.08412519324193
  27     0.059481507010628
  28     0.028561489450367
  29    0.0045586687549327
  30     0.056772263284182
  31     -0.19842028205648
  32      0.25693503959433
  33     -0.27003775344538
  34     0.027230417569802
  35     -0.11437271916988
  36    -0.0024611887840418
 Sym= A
 Ene=   -0.5806009303
 Spin= Alpha
 Occup=    1.00000
   1      0.10891147305844
   2     -0.33170392473793
   3     -0.01174377685772
   4    -0.063167458147058
   5    0.0016919553154194
   6    -0.082559309110055
   7      0.25958609340437
   8    0.00038040795709653
   9     -0.20801273924072
  10    0.0018783748552188
  11     0.053520808491337
  12     -0.17306963897165
  13      0.21037910348479
  14     0.052415237343988
  15     0.016175669556427
  16     0.095584390547771
  17     -0.14385805326136
  18     -0.12766050633636
  19    -0.053079893053133
  20      0.15969819096596
  21     0.057709149453265
  22      0.17780857033562
  23    0.0042551590808524
  24     -0.18957136905929
  25     0.052229801094233
  26     -0.16903639381176
  27     -0.20468848796544
  28      0.06645578244971
  29    -0.016738596793678
  30    -0.056152135354757
  31      0.17036935090837
  32     -0.05167060292555
  33      0.19294746354892
  34    -0.0068686735196016
  35     0.099539787901704
  36     -0.19634968578004
 Sym= A
 Ene=   -0.5456715076
 Spin= Alpha
 Occup=    1.00000
   1    -0.032077143295399
   2      0.11678255577195
   3     0.035483092726965
   4      0.17855402371743
   5    -0.0025740188697647
   6     0.057356579407089
   7     -0.20357077500074
   8    -0.011388988072197
   9    -0.073322205316403
  10    -0.00055583302449245
  11     -0.06402062244291
  12      0.18773722068787
  13      0.27680480317488
  14      0.18068751010615
  15     0.019837698311001
  16     -0.13759267540317
  17      0.13791988386574
  18     0.093822833984522
  19     0.016297772625458
  20    -0.081588246708263
  21      0.14597486071351
  22     -0.13827190247652
  23     0.012184457828179
  24     -0.21614493462437
  25    -0.056963635218408
  26      0.16508128772013
  27     -0.26630070908235
  28      0.21998287493665
  29    -0.022193731894218
  30     0.018164203141665
  31     -0.08861143500436
  32     -0.14392742008437
  33     -0.13358192981696
  34    -0.0095519926086539
  35     -0.14686305566863
  36     -0.19069210233636
 Sym= A
 Ene=   -0.5349435455
 Spin= Alpha
 Occup=    1.00000
   1    0.0043355210906449
   2    -0.015651458725107
   3      0.41125606080029
   4    -0.030103438894937
   5    -0.019887373634833
   6    -0.0028279466382316
   7     0.010070583381171
   8     -0.12208046970869
   9    0.0071018976137007
  10    -0.010095527878117
  11    -0.060973979081778
  12      0.19886543047184
  13    -0.089595368769121
  14     -0.14677893514416
  15    -0.0056911275703944
  16      0.11555946225266
  17      0.32657245439578
  18     -0.34685125439496
  19    -0.0076609782960161
  20     0.034026964862122
  21      0.11920490474784
  22     0.065352062603768
  23     0.011446136638968
  24     -0.23055348041798
  25     0.069790368555966
  26     -0.22461065240635
  27    -0.056544291654908
  28      0.13338707450521
  29    -0.0054097495313871
  30    0.0020593375510038
  31    -0.012658565802339
  32      0.13852310625213
  33    -0.053729971030882
  34     0.013818145739231
  35     -0.08503463688435
  36      0.24360428313429
 Sym= A
 Ene=     -0.51033643
 Spin= Alpha
 Occup=    1.00000
   1    0.0093326960225036
   2    -0.013511483801483
   3    0.0064825605033766
   4      0.20734072645023
   5    -0.00093990091368628
   6      0.14081223406256
   7     -0.45258883230439
   8    0.0019081943498918
   9    0.0019810436142296
  10    -7.7654751871645e-05
  11    0.0032180372263339
  12    0.00048904039804749
  13     0.089858488018213
  14     0.059102049368716
  15    0.0065213212810539
  16      0.30187387162142
  17      0.08513052158639
  18     0.090922580400993
  19    -0.054862812361632
  20      0.18674656668733
  21      -0.2811525776311
  22     0.014302331412225
  23    -0.022094142866312
  24      -0.1066768655377
  25    0.00020019870938154
  26     0.010485484267781
  27    -0.080904548179357
  28      0.05987161915281
  29    -0.0067651658664269
  30     -0.05378386889825
  31      0.18338653224919
  32       0.2754935966827
  33    -0.0095335272348216
  34     0.021498656199486
  35      0.30826603233945
  36     -0.11788298851879
 Sym= A
 Ene=   -0.4810839549
 Spin= Alpha
 Occup=    1.00000
   1    0.00090684844236036
   2    -0.0041743734451607
   3      0.33361676396645
   4    -0.019994192479885
   5      -0.0141399310911
   6    -0.0020166372641712
   7    0.0065467989213525
   8    -0.014247469794625
   9    0.00021227595875576
  10    -0.0041082697965347
  11     0.067328438938213
  12     -0.22985202720162
  13     0.095964974711999
  14      0.14777548370956
  15    0.0071295485617186
  16     -0.18002348055901
  17      0.25239977621215
  18     -0.25947425812234
  19    -0.069301549284367
  20      0.23604343351346
  21    -0.087470264345465
  22     0.061562310386687
  23    -0.0058558138315266
  24      0.24528191885072
  25    -0.066158099279514
  26      0.22616398234423
  27     0.084110177997236
  28     -0.15878275161761
  29     0.008670191930202
  30     0.069382113847634
  31     -0.23627213988943
  32     -0.09555518984321
  33    -0.049537275949308
  34    -0.0055905682847806
  35      0.17809000813634
  36     -0.24312879255059
 Sym= A
 Ene=   -0.3704049132
 Spin= Alpha
 Occup=    1.00000
   1    -0.0003663838425514
   2     0.001346000278827
   3     0.015119206139816
   4    0.00075209850183562
   5      0.26560284560031
   6    0.00011776837933673
   7    -0.00051416791317405
   8    -0.025050295100591
   9    0.0027260733693472
  10      0.42135627810212
  11    0.00013184682815681
  12    -0.00058495448976922
  13    -0.024518891856831
  14     0.002041127248244
  15      0.32071918579643
  16    -0.00086507913890167
  17    0.0071417081923744
  18    -0.0069650065520579
  19    4.7916392587995e-05
  20    0.0010438732594926
  21     -0.02662669815059
  22    0.0030807831132623
  23      0.34077727485006
  24    -0.00033067530409192
  25    -0.00012448996949787
  26    0.00053999180607516
  27    -0.024301624570126
  28    0.0030435479522163
  29      0.31824886965436
  30    -5.7227698566456e-05
  31    -0.00097375809008853
  32    -0.027139045532832
  33    0.0024472534122979
  34       0.3467641150957
  35    0.00089783799424304
  36    0.0003444492916641
 Sym= A
 Ene=   -0.2228422256
 Spin= Alpha
 Occup=    1.00000
   1    -0.0006220501961873
   2    0.0025548695726688
   3     0.028985343562919
   4    0.0016055656513961
   5       0.5600066354043
   6    0.00016637714431648
   7    -0.00077724772644584
   8    -0.030018203333144
   9    0.0027946521079241
  10      0.45345969792891
  11    0.00030952671193966
  12    -0.001567705174591
  13     0.033486475579222
  14    -0.0051368524763514
  15      -0.4100491047705
  16    0.00054729949149272
  17    0.0087786946348747
  18    -0.0091877948051632
  19    -0.0021038369576836
  20    0.0099993036505159
  21     0.017433575054351
  22    0.0052761672584805
  23     -0.14430456916495
  24    -0.0015180398887246
  25    -0.00028870630246556
  26    0.0014553692533731
  27      0.03058288643985
  28    -0.0013484604375735
  29     -0.37055536160289
  30    0.0020570970498358
  31    -0.0097703449187275
  32     0.012458820879537
  33    -0.0075474514634529
  34    -0.089404569076549
  35    -0.00051710784290497
  36    0.0015862582625539
 Sym= A
 Ene=   -0.1634387612
 Spin= Alpha
 Occup=    1.00000
   1    1.4274425653253e-05
   2    -0.00046720128196238
   3    0.0013763435435655
   4    -0.00089735913500782
   5     0.027715997018504
   6    1.6657289045769e-05
   7    0.00076094551762206
   8    -0.001590801077635
   9    0.00085534875289002
  10     0.024931869336091
  11    -0.00010797316978204
  12    0.00047322096612806
  13    -0.028808327783185
  14    0.0032909862585499
  15      0.37533338055849
  16    0.00028763786549297
  17    0.00083250328918198
  18    -0.00020319820161752
  19    0.00035701059855274
  20    -0.0014868491205638
  21    -0.041998542012545
  22    0.0033136651852264
  23      0.53543317803157
  24    -0.00035271364387073
  25    -0.000142721869073
  26    0.00064787932932367
  27     0.032026176238842
  28    -0.0028537526855353
  29     -0.41411819862191
  30    0.00057014005067565
  31    -0.0025073675075718
  32     0.043164338386735
  33    -0.0060555104066555
  34     -0.54477352159572
  35    0.00024332889120344
  36    -0.00020046185061054
 Sym= A
 Ene=    0.1075030414
 Spin= Alpha
 Occup=    0.00000
   1    0.0005230538697774
   2    -0.0026458307699104
   3    -0.028760091050132
   4    -0.0018751788247984
   5      -0.6034486767016
   6    -6.0641714461595e-05
   7    0.00022698975779284
   8    -0.016937355305066
   9    0.0022873198166012
  10      0.25988575944542
  11    -0.00045312077471884
  12    0.0019482731318613
  13     0.028326411165119
  14    9.7137359175314e-05
  15     -0.39259763099404
  16    -0.0024018524398019
  17     0.005556223120095
  18    -0.003909250083755
  19    0.0023519372623662
  20    -0.010440045194726
  21    -0.041535813898652
  22    -0.0056949794149077
  23      0.42550720809761
  24    0.0026448336576746
  25    0.00044955817099736
  26    -0.0019275023958007
  27     0.028902274108185
  28    -0.0062798055007423
  29     -0.40351562400344
  30    -0.0023835965148789
  31     0.010597614352161
  32    -0.041546936410366
  33     0.013431801683631
  34      0.43586988533056
  35    0.0023270134341377
  36    -0.0026553058414414
 Sym= A
 Ene=    0.3025114438
 Spin= Alpha
 Occup=    0.00000
   1    -0.00021884115399697
   2    0.0011568633623013
   3    0.0015414827473843
   4    0.00018199265035089
   5     0.035175824477358
   6    0.00070686315203801
   7    -0.0043127862325623
   8    0.0027828370144437
   9    0.0015518559073877
  10    -0.049531829335247
  11    9.4155465514458e-05
  12    -0.00043682612692877
  13    -0.051566041919888
  14    0.0047018694113231
  15      0.66926450501528
  16    -0.0012043452438332
  17    -0.0010980888232088
  18    0.00030102780095355
  19    -0.00059816490962441
  20    0.0032218351868614
  21     0.037671928633174
  22    -0.0017233929521557
  23     -0.46595181086954
  24    8.0906875572897e-05
  25    7.638925317285e-05
  26    -0.00040427096561262
  27      0.05278213522078
  28     -0.00605112668507
  29     -0.68596718945669
  30    -0.00055262248181423
  31    0.0033180268896925
  32    -0.040688655152747
  33     0.005919553966501
  34      0.50916830001391
  35    -0.0012791872693208
  36      0.00017074974842
 Sym= A
 Ene=    0.3229379891
 Spin= Alpha
 Occup=    0.00000
   1    0.00044419171179007
   2    -0.0025721867488754
   3    -0.023427332717238
   4    -0.0021447388556347
   5     -0.54358180411766
   6    6.1732956750641e-05
   7    -0.00045014887233862
   8    -0.043448567131643
   9    0.0057342547007928
  10      0.80528865344797
  11    -4.2485949891221e-05
  12    -0.00024402374637796
  13    -0.017464350553089
  14    0.0021349918463883
  15      0.23178824528825
  16    -0.00045750342591154
  17     0.011960572747294
  18    -0.0096675842378237
  19    3.7993762530429e-05
  20    0.0023773265170134
  21     0.038618443810442
  22    -0.0050375627412603
  23     -0.49684197590532
  24    0.00033058792487017
  25    6.3932105922106e-05
  26    0.00014463038408526
  27    -0.011605889183317
  28    0.00083852521265766
  29      0.15546361312846
  30    -0.00014403759002707
  31    -0.0018102952940904
  32     0.034016413202456
  33    -0.0020615822947064
  34     -0.44080937191632
  35    0.00030522564639246
  36    -0.00025784867459817
 Sym= A
 Ene=   0.02337145981
 Spin= Alpha
 Occup=    0.00000
   1     -0.12080660744018
   2      0.74625279140599
   3    -0.017210076947867
   4     -0.33055147782607
   5    -0.00033303162179482
   6      0.20106739347118
   7      -1.1933813964666
   8    0.0012268106521471
   9     0.031792985625465
  10    -0.00059518984811664
  11     0.054579047866559
  12     -0.33077427601197
  13      0.14465350449256