[Molden Format]
made by pyscf v[2.0.1]
[Atoms] (AU)
C   1   6    -2.85581081122646     4.84822465340039    -0.00848487029930
C   2   6    -2.97920992716056     2.21517475773766    -0.00017007535121
C   3   6    -4.63489347119824    -1.96234829953210    -0.09429733361580
H   4   1     1.34799833643600     0.99095348246067     0.34300418886980
H   5   1    -1.11970052332729     5.86145800686968    -0.11882597871265
H   6   1    -4.50574958784546     6.03232704305285     0.08116373705007
C   7   6    -5.37568500928899     0.57470350900273    -0.17153044032677
H   8   1    -0.55930224108752    -3.95661407330810     0.23564884773326
C   9   6    -1.70710299188709    -2.09366536792812     0.13239421228703
C   10   6    -0.74043249012708     0.36681473803932     0.18713957811568
H   11   1    -7.39933602430197     1.38327952318163    -0.33399019525563
H   12   1    -5.94611773725020    -3.71501258828245    -0.18114914630081
[GTO]
1 0
 s    3 1.00
             71.616837    0.15432897000916
             13.045096    0.53532814003178
             3.5305122     0.4446345400264
 s    3 1.00
             2.9412494  -0.099967230075964
             0.6834831    0.39951283030359
             0.2222899    0.70011547053201
 p    3 1.00
             2.9412494    0.15591627210511
             0.6834831    0.60768372820466
             0.2222899    0.39195739529202

2 0
 s    3 1.00
             71.616837    0.15432897000916
             13.045096    0.53532814003178
             3.5305122     0.4446345400264
 s    3 1.00
             2.9412494  -0.099967230075964
             0.6834831    0.39951283030359
             0.2222899    0.70011547053201
 p    3 1.00
             2.9412494    0.15591627210511
             0.6834831    0.60768372820466
             0.2222899    0.39195739529202

3 0
 s    3 1.00
             71.616837    0.15432897000916
             13.045096    0.53532814003178
             3.5305122     0.4446345400264
 s    3 1.00
             2.9412494  -0.099967230075964
             0.6834831    0.39951283030359
             0.2222899    0.70011547053201
 p    3 1.00
             2.9412494    0.15591627210511
             0.6834831    0.60768372820466
             0.2222899    0.39195739529202

4 0
 s    3 1.00
            3.42525091    0.15432897070298
            0.62391373    0.53532814243847
             0.1688554    0.44463454202535

5 0
 s    3 1.00
            3.42525091    0.15432897070298
            0.62391373    0.53532814243847
             0.1688554    0.44463454202535

6 0
 s    3 1.00
            3.42525091    0.15432897070298
            0.62391373    0.53532814243847
             0.1688554    0.44463454202535

7 0
 s    3 1.00
             71.616837    0.15432897000916
             13.045096    0.53532814003178
             3.5305122     0.4446345400264
 s    3 1.00
             2.9412494  -0.099967230075964
             0.6834831    0.39951283030359
             0.2222899    0.70011547053201
 p    3 1.00
             2.9412494    0.15591627210511
             0.6834831    0.60768372820466
             0.2222899    0.39195739529202

8 0
 s    3 1.00
            3.42525091    0.15432897070298
            0.62391373    0.53532814243847
             0.1688554    0.44463454202535

9 0
 s    3 1.00
             71.616837    0.15432897000916
             13.045096    0.53532814003178
             3.5305122     0.4446345400264
 s    3 1.00
             2.9412494  -0.099967230075964
             0.6834831    0.39951283030359
             0.2222899    0.70011547053201
 p    3 1.00
             2.9412494    0.15591627210511
             0.6834831    0.60768372820466
             0.2222899    0.39195739529202

10 0
 s    3 1.00
             71.616837    0.15432897000916
             13.045096    0.53532814003178
             3.5305122     0.4446345400264
 s    3 1.00
             2.9412494  -0.099967230075964
             0.6834831    0.39951283030359
             0.2222899    0.70011547053201
 p    3 1.00
             2.9412494    0.15591627210511
             0.6834831    0.60768372820466
             0.2222899    0.39195739529202

11 0
 s    3 1.00
            3.42525091    0.15432897070298
            0.62391373    0.53532814243847
             0.1688554    0.44463454202535

12 0
 s    3 1.00
            3.42525091    0.15432897070298
            0.62391373    0.53532814243847
             0.1688554    0.44463454202535

[5d]
[7f]
[9g]

[MO]
 Sym= A
 Ene=    -11.03706535
 Spin= Alpha
 Occup=    1.00000
   1      0.04285864667041
   2    -0.0053081723617126
   3     0.000207267978575
   4    0.0043527946298956
   5    -1.5712692238546e-05
   6      0.99146687277059
   7     0.033846701688224
   8    2.6216414342466e-05
   9    0.00038672137905355
  10    7.2811575417817e-06
  11    -0.0024114305973998
  12    7.3925070117484e-05
  13    -7.6673279987935e-05
  14    -6.6744103173919e-06
  15    -6.6514263217432e-06
  16    7.9402929056601e-05
  17    -0.00026769168225599
  18    -0.00026305934158302
  19    -0.0055891519431434
  20    -0.0056121073858892
  21    -0.0032247326791314
  22    -0.002402555969161
  23    -0.00022580394944393
  24    -5.1582190660917e-05
  25    -0.0024004022929405
  26    7.4801938400432e-05
  27    7.5577169501456e-05
  28    -1.31354935095e-05
  29    6.6527973875739e-06
  30    -0.0055818989152301
  31    -0.005615541342805
  32    0.0029972263404102
  33    -0.0026826953837297
  34    0.00024778538103238
  35    7.9023453737299e-05
  36    -5.1544725904828e-05
 Sym= A
 Ene=    -11.03268876
 Spin= Alpha
 Occup=    1.00000
   1      0.99140972667706
   2     0.035678013448236
   3    4.9887436207168e-05
   4    -0.00067016893850782
   5    -3.3706247726451e-05
   6    -0.042111178406291
   7    -0.0083169548238616
   8    -0.00021396578651605
   9    -0.0043564941896279
  10    1.6114899033049e-05
  11    -0.00034428040906026
  12    -7.9289106116323e-05
  13    -5.8756320337271e-06
  14    -5.4216701915379e-05
  15    -3.2346003786438e-07
  16    -5.1216975715686e-05
  17    -0.0070110895683983
  18    -0.0069020661091536
  19    8.8550861543933e-05
  20    0.00043027045496269
  21    0.00018905069001421
  22    0.00012577720299442
  23    1.8680940147046e-05
  24    -9.3004679440256e-07
  25    -0.00034515077726541
  26    -8.0679726667299e-05
  27    7.7630784326841e-07
  28    -5.5482845605999e-05
  29    1.0413795027695e-06
  30    7.9607394824322e-05
  31    0.00043411607895395
  32    -0.00018077602906793
  33    0.00014091517391644
  34    -2.1119502321327e-05
  35    -5.1395411289842e-05
  36    -9.3458155885163e-07
 Sym= A
 Ene=    -11.01910941
 Spin= Alpha
 Occup=    1.00000
   1    7.5879928185094e-05
   2    -1.7023804962781e-05
   3    3.4179531665416e-05
   4    1.3389825755351e-05
   5    2.9108697671301e-06
   6    0.00043996130815319
   7    4.3011054716566e-06
   8    2.5718160407705e-05
   9    4.8499193727139e-05
  10    1.2019477622394e-06
  11      0.77764759644493
  12     0.029633470292699
  13    0.0027150167034888
  14    0.0013000974345869
  15    0.00019494616668276
  16    4.0232184992126e-05
  17    1.2031285602519e-07
  18    -3.6561093367634e-06
  19     0.027481229616497
  20    -0.0045908566871088
  21    -0.00084943844173764
  22    0.0033491341495284
  23    -9.1788169215876e-05
  24    0.0037001578028992
  25     -0.61483824241981
  26    -0.024990838319242
  27    0.0032290130236934
  28    -0.0012793128943825
  29    0.00025588690467208
  30    -0.023432326036869
  31    0.0036235592343773
  32    -0.00089664598802907
  33    -0.0025868473523238
  34    -4.809609940403e-05
  35    -6.101172169402e-05
  36    -0.004678196728444
 Sym= A
 Ene=    -11.01877088
 Spin= Alpha
 Occup=    1.00000
   1    0.00065499037902566
   2    -0.00014669626046702
   3    2.2881103566457e-06
   4    0.0001291201025464
   5    -7.3813869423786e-07
   6    0.0037015263726469
   7    3.3253341998848e-05
   8    1.6055624686395e-05
   9    0.00042649740715743
  10    -1.9849425041779e-06
  11      0.61588516602975
  12      0.01669140194271
  13    -0.0029916307004175
  14     0.001215035706965
  15    -0.00024321144466517
  16    -9.6890176716525e-05
  17    -1.5808571875654e-05
  18    -1.509484697051e-05
  19     0.014480870245109
  20    -0.0036581168061969
  21    -0.00072441601633259
  22     0.002614727426792
  23    -7.650284436511e-05
  24    -0.0046773539214295
  25      0.77846766296612
  26     0.023068250342929
  27    0.0024092850831458
  28    0.0012704174029518
  29    0.00017936964676493
  30     0.020634017155831
  31    -0.004610158507744
  32    0.0011959247760871
  33    0.0032215930415966
  34    6.6117840954956e-05
  35    -8.3820703437738e-05
  36    -0.0036991250858259
 Sym= A
 Ene=    -11.01254292
 Spin= Alpha
 Occup=    1.00000
   1    4.057789869262e-05
   2    3.7930834323138e-05
   3    -0.00025102992963991
   4    1.7275618060923e-05
   5    -1.2654213541815e-05
   6    0.0020523495706476
   7    -0.0016866603818926
   8    0.0046252326704447
   9    0.00056614694045476
  10    0.00036367328443028
  11    -0.028237040131592
  12    -0.0069957805253897
  13    0.0010573851884831
  14    -0.0035665247350209
  15    0.00011199361122748
  16    0.0031270800053578
  17    6.5698691872282e-05
  18    -0.00011216383589292
  19      0.83972996134081
  20     0.028966883572695
  21     0.001252888470465
  22    -0.001322909779417
  23    9.9860959660525e-05
  24    -0.00024161602574424
  25     0.020819020610706
  26     0.004627999334174
  27    0.00081004638857686
  28    0.0020901382061136
  29    4.6806471583775e-05
  30     -0.52764513231304
  31    -0.018169721196834
  32    0.00089412037356289
  33    0.00079364151102523
  34    5.8145859750495e-05
  35    -0.0050285211199717
  36    0.00028419627682506
 Sym= A
 Ene=    -11.01245004
 Spin= Alpha
 Occup=    1.00000
   1    0.00020560720292965
   2    0.00017906178255226
   3    5.786284936246e-05
   4    2.3121859677244e-05
   5    2.298803211753e-06
   6     0.008971523238114
   7    -0.0073955715116049
   8    -0.00089417318913817
   9    0.0034272569572477
  10    -9.9186938538895e-05
  11    -0.011100822214701
  12    -0.0038754064996133
  13    0.00077325697122182
  14    -0.002443470768741
  15    8.0785800395913e-05
  16    -0.0050979997806085
  17    -0.00012957581576998
  18    -8.7144143421627e-05
  19      0.52796950512055
  20     0.018288754797022
  21    0.00071426797743166
  22    -0.00074305365212016
  23    5.6932724390899e-05
  24    0.00015624699199028
  25    -0.022344759660678
  26    -0.0065292628825747
  27    -0.0014888512763779
  28    -0.0036300710355214
  29    -8.8137687306764e-05
  30       0.8399279057765
  31     0.029043067174481
  32    -0.0012937292964794
  33    -0.0011324000743056
  34    -8.4474033172267e-05
  35    -0.0032371650946117
  36    3.5973055606726e-05
 Sym= A
 Ene=    -1.054886091
 Spin= Alpha
 Occup=    1.00000
   1    -0.064240156777307
   2      0.17170586223689
   3    -0.0021190169799973
   4    -0.054657966431124
   5    7.9195901810193e-05
   6     -0.12455260173844
   7      0.32934055514213
   8    -0.0013519168991374
   9    -0.033164744346447
  10    0.00020866526168863
  11     -0.10196178696808
  12      0.26758992375298
  13     0.033731736289665
  14     0.066103885245273
  15     0.002043089101729
  16     0.047111225098615
  17     0.036332581934598
  18      0.03558383203449
  19     -0.10782627600181
  20      0.28312926642238
  21     0.070485254113235
  22    -0.028907955636565
  23    0.0055996416925201
  24     0.042992343443327
  25     -0.10196337576554
  26      0.26758444138702
  27    -0.027626055915305
  28     0.068866578361693
  29    -0.0026494526758274
  30     -0.10788106207827
  31      0.28326129838725
  32    -0.072816300061779
  33    -0.022426555980753
  34    -0.0053730063780669
  35     0.047070135412099
  36     0.042994970968053
 Sym= A
 Ene=   -0.9406275492
 Spin= Alpha
 Occup=    1.00000
   1     -0.17420992375709
   2      0.48035594608585
   3    -0.001235432820318
   4    -0.064528310010867
   5    -0.00027263779852826
   6     -0.11217180838259
   7       0.3127649824353
   8    0.0075554299575218
   9      0.15246663506701
  10    -0.00056077437967761
  11     0.090109200206419
  12     -0.25307001485934
  13    -0.034179176194634
  14    -0.021676494764357
  15    -0.0024457450115281
  16    -0.0056767915338313
  17      0.13585441385406
  18      0.13288080521527
  19     0.023524543813606
  20    -0.059165011237836
  21    0.0075619557640936
  22     0.093997060168414
  23    2.0391750388266e-06
  24    -0.057055813581737
  25     0.089810421885915
  26     -0.25222806222647
  27     0.032358276654843
  28    -0.024348283559935
  29     0.002679798921194
  30     0.022932174051715
  31     -0.05754162586344
  32    0.00085987639152805
  33      0.09429603456273
  34    -0.00085972682461379
  35    -0.0061355438216628
  36    -0.057257397170925
 Sym= A
 Ene=   -0.8829825076
 Spin= Alpha
 Occup=    1.00000
   1    -0.00030035483925546
   2    0.00091027195642878
   3      -0.0235719286054
   4    0.00084396965080343
   5    -0.00097793870420519
   6    -0.00035822172950988
   7    0.0010345560562338
   8     -0.13197001322303
   9    0.0061894169660841
  10    -0.0092371075672344
  11      -0.1005455061575
  12      0.28769979725238
  13    -0.092672212250727
  14     0.095511108436206
  15    -0.0078774801145126
  16     -0.11738793612158
  17    -0.010487341799013
  18     0.010868025204237
  19     -0.14415468334772
  20      0.41452881476166
  21    0.0024277314451291
  22    -0.068433181699577
  23    0.00056897494742441
  24       -0.080916236439
  25      0.10101269653945
  26      -0.2890520142822
  27     -0.10069604271061
  28    -0.086820740411583
  29    -0.0070394203368442
  30      0.14413921151908
  31      -0.4144545048115
  32    0.0084888762986149
  33     0.068494386542966
  34    -5.1136887846369e-05
  35       0.1174267146203
  36     0.080550767473795
 Sym= A
 Ene=   -0.7820818734
 Spin= Alpha
 Occup=    1.00000
   1     -0.11560138350583
   2      0.34369561286452
   3    0.0091638326468228
   4      0.13351186681086
   5    -0.0012446904519784
   6     0.091133482142285
   7     -0.28430000148755
   8    0.0075485834287127
   9      0.15585512571637
  10    -0.00074354655511391
  11    -0.095699000407457
  12      0.29808240043031
  13     0.053982598595133
  14      -0.1003176298105
  15    0.0049721370389485
  16     -0.06816482388314
  17      0.17166136509221
  18      0.16711382973637
  19     0.066060998193341
  20     -0.20099259749159
  21    -0.044437867336804
  22     -0.10562835994753
  23    -0.0029000782984999
  24       0.1280506740533
  25    -0.095233018284571
  26      0.29667218406805
  27    -0.063320710504071
  28    -0.095210500916357
  29    -0.0041360179702582
  30     0.066214654631905
  31     -0.20145099509893
  32     0.034704701795664
  33     -0.10833784028902
  34    0.0038240395865344
  35    -0.068147563920075
  36      0.12863359146642
 Sym= A
 Ene=   -0.6617377797
 Spin= Alpha
 Occup=    1.00000
   1    3.7458984732284e-05
   2    0.00013540528253735
   3     -0.14867142346181
   4    0.0016749567958511
   5    0.00073215289857232
   6    -0.0019685201612425
   7    0.0062354041730348
   8     -0.23373885913004
   9     0.013132985995787
  10    -0.014505003876398
  11     0.098126896044588
  12       -0.314440061865
  13      0.12727596806987
  14     0.066298394564081
  15    0.0093600723276953
  16        -0.16056589566
  17    -0.092499179215461
  18      0.08800215104681
  19    -0.061821661559853
  20      0.20504417850892
  21    -0.026013391572653
  22      0.20600593659248
  23    -0.002478478856631
  24      0.22100343564973
  25    -0.099603027513814
  26      0.31943948876116
  27      0.11544385369344
  28    -0.082775093503118
  29    0.0096521180199584
  30     0.065071549344541
  31     -0.21536821946986
  32     -0.05007034682081
  33     -0.20065464463272
  34    -0.0011004387738261
  35      0.15298157940789
  36     -0.21777294067712
 Sym= A
 Ene=   -0.6501069456
 Spin= Alpha
 Occup=    1.00000
   1     0.031660140494174
   2     -0.10385735836346
   3       -0.014248047531
   4     -0.27019272502007
   5    0.0018422445319019
   6     -0.10688812375113
   7      0.34127550173932
   8    0.0069235698565409
   9     0.060423558728866
  10    0.00032359270843843
  11    -0.030691703769692
  12       0.1038532119605
  13       0.1455042251429
  14     -0.12513593143755
  15      0.01195250045647
  16     -0.22270408792401
  17     -0.15489535999377
  18     -0.15180279967394
  19      0.08295113184268
  20     -0.26665510802827
  21      0.19819974266222
  22     0.046511076283433
  23     0.015494068789986
  24     0.044098356888298
  25    -0.026762880250041
  26     0.091155712548163
  27     -0.16090224424235
  28     -0.10767925363543
  29    -0.011208253825835
  30     0.080118170881966
  31      -0.2572596440601
  32     -0.19089720239393
  33       0.0716204931482
  34    -0.015758371318896
  35     -0.22959678551852
  36     0.053460749125331
 Sym= A
 Ene=   -0.6044193943
 Spin= Alpha
 Occup=    1.00000
   1    -0.015410289016938
   2     0.059231626091011
   3     0.018554918958842
   4      0.27064659674921
   5    -0.0019589374772798
   6     0.030104349195384
   7    -0.095484360878333
   8    -0.010604677728407
   9     -0.23127128084675
  10    0.00058357009803929
  11     0.013416529732749
  12    -0.056318476523708
  13      0.14596718157776
  14      0.21321820860972
  15    0.0095497430985178
  16     -0.18501362642909
  17      0.14057822043266
  18      0.13183791987331
  19    0.0077379456518721
  20    -0.038670543352109
  21      0.20864605164843
  22    -0.096525816064185
  23     0.016838596225531
  24     -0.21004345528619
  25     0.012321568934609
  26     -0.05266344963477
  27     -0.12480962543337
  28      0.22320478285572
  29    -0.011543683010878
  30    0.0088468125155992
  31    -0.042382182693893
  32     -0.21794410077596
  33    -0.078603706319753
  34    -0.016386830170556
  35     -0.18213734948267
  36     -0.21365111371666
 Sym= A
 Ene=   -0.5516323801
 Spin= Alpha
 Occup=    1.00000
   1    0.0014317651016579
   2    -0.0062091653193932
   3        0.501364475797
   4     -0.02753259808827
   5    -0.031996374971042
   6    -0.0012737054010864
   7    0.0043414179059522
   8      0.11159239753803
   9    -0.0055524763108812
  10    -0.014717392029071
  11     0.027255666822658
  12    -0.095016160752713
  13     0.038962130537154
  14     0.095880205618213
  15    -0.0022306604018675
  16     -0.10832142195721
  17       0.3657736190824
  18     -0.37372335993493
  19    -0.033337931791386
  20       0.1140865000077
  21    -0.082669083315507
  22    -0.018824120537182
  23    -0.014287581325909
  24      0.13766734962387
  25    -0.027271294421868
  26     0.095425022697502
  27     0.030632506843536
  28      -0.1079505709832
  29    -0.0012237399563178
  30     0.033777986238984
  31     -0.11514754303294
  32    -0.079461401872821
  33     0.032475155560624
  34    -0.014446643736832
  35      0.10998841065261
  36      -0.1310030392221
 Sym= A
 Ene=   -0.4858437716
 Spin= Alpha
 Occup=    1.00000
   1    7.9215669455699e-05
   2    -0.00035012427223501
   3     0.028243787407167
   4    -0.00096835104062193
   5    -0.0036994464679246
   6    -5.5036214514917e-05
   7    0.00023382416646419
   8     0.077608658037603
   9    -0.0040581776059071
  10    0.0015210371198509
  11     0.013989557171242
  12     -0.03734995072802
  13     -0.05173412972263
  14     -0.30496724056648
  15    -0.0035544364098869
  16     -0.27986410362262
  17     0.018050887597806
  18    -0.017982095478245
  19     0.024833717881722
  20    -0.077321648146313
  21     -0.27735693249493
  22      0.21812988273793
  23    -0.025096234653658
  24     -0.24025892718869
  25    -0.013926889422627
  26     0.037148160867643
  27    -0.024044138817161
  28      0.30759478794623
  29    -0.0063146395633851
  30    -0.024856212635253
  31      0.07743200537904
  32     -0.29608273650346
  33     -0.19168665944081
  34    -0.023265328619651
  35       0.2799327186358
  36       0.2407608765871
 Sym= A
 Ene=   -0.4683100213
 Spin= Alpha
 Occup=    1.00000
   1    -0.035090347000031
   2      0.11506388111408
   3    -0.015028946555854
   4     -0.35547436243953
   5    0.0024000113888167
   6     0.026487509355596
   7     -0.12186565790315
   8     0.022223868220071
   9      0.41621782454281
  10    -0.00057718023509506
  11    -0.019607858615361
  12     0.060436390309271
  13    -0.053248718211554
  14      0.27929767758604
  15    -0.0054426674350125
  16    -0.057530619828655
  17     -0.12668368201153
  18     -0.12897229709197
  19    0.0051126878490112
  20     -0.03038327260624
  21    -0.076966983337214
  22     -0.29265489166885
  23    -0.0041941373825423
  24     -0.15591157764053
  25     -0.01991162034485
  26     0.061568585912332
  27     0.078114268784118
  28      0.27135342908699
  29    0.0038493345213552
  30    0.0052758191021814
  31    -0.030925891028189
  32     0.045913412298893
  33      -0.2955527687165
  34    0.0075348440107715
  35    -0.053893266030707
  36     -0.15833586512964
 Sym= A
 Ene=   -0.4329683128
 Spin= Alpha
 Occup=    1.00000
   1    0.0035606493009735
   2    -0.0090040931490068
   3    0.0028068760433674
   4     0.056694416528612
   5    -0.00068898000632366
   6    -0.031995907243109
   7      0.12321956394418
   8    -0.0066932065276043
   9     -0.12608118611347
  10    -3.896575319696e-05
  11     0.019867750144121
  12    -0.088093954467423
  13     -0.46268476874266
  14     0.028360040970347
  15    -0.035868114691975
  16     -0.22107439450718
  17     0.019846765187041
  18     0.019446770189542
  19    -0.0048058327536083
  20      0.01378257763676
  21      0.16478300432211
  22     -0.14327804625678
  23      0.01370493208523
  24      0.22994358783062
  25     0.019899665604556
  26    -0.088221660582681
  27      0.46345898534216
  28    -0.012532434210043
  29     0.035133502751117
  30    -0.0047916185139524
  31     0.013698922510422
  32     -0.17576779744673
  33     -0.12902534618436
  34    -0.013105568394781
  35     -0.22197036299847
  36      0.23063342954028
 Sym= A
 Ene=   -0.4202170194
 Spin= Alpha
 Occup=    1.00000
   1    -0.00011369931906836
   2    0.00079078759369131
   3     -0.05155572232216
   4    0.0056582840170347
   5      0.25927199366294
   6    5.4819565930923e-05
   7    -8.8695575269497e-05
   8      0.16788554964857
   9    -0.0083830578510124
  10      0.38697253396371
  11    0.0030984303028836
  12     -0.01335298778793
  13    -0.026093965946917
  14     0.071188653036585
  15      0.29506411608115
  16     -0.07783917629382
  17    -0.066551456686466
  18     0.068432376107316
  19    0.0035839591263343
  20    -0.017056411688883
  21       -0.144093092184
  22    -0.097781691961102
  23      0.29890829611414
  24     0.071939692627348
  25    -0.0028289316539066
  26     0.012357178264314
  27     -0.03120042184226
  28    -0.067765641341808
  29      0.29577215840522
  30    -0.0037248422095526
  31     0.017630481186712
  32     -0.13574675110034
  33      0.11480515715125
  34      0.29785497556985
  35     0.077486826034254
  36    -0.070061652333497
 Sym= A
 Ene=   -0.4097394136
 Spin= Alpha
 Occup=    1.00000
   1    5.6343448790887e-05
   2    0.00048926673632593
   3     -0.18287035668301
   4     0.010475793309694
   5    -0.073658905719684
   6    1.5296380102036e-05
   7    0.00010907225968064
   8      0.42613959993231
   9    -0.021771082746727
  10     -0.12396203479732
  11    0.0043692134340318
  12    -0.020470067834563
  13     0.002931134531167
  14      0.14988436913601
  15     -0.15042649384471
  16     -0.15759067680241
  17     -0.19000060238944
  18      0.19315905065268
  19     0.011934097190359
  20    -0.054026464977529
  21     -0.24783633146806
  22      -0.2301209328695
  23     -0.16916519483113
  24      0.15226416469901
  25    -0.0041522866573933
  26     0.019676922885022
  27    -0.010074289538528
  28     -0.15244420804155
  29     -0.14900629131635
  30    -0.012063301236197
  31     0.054560492307396
  32     -0.22705631128628
  33      0.25160381881017
  34     -0.17142019172754
  35      0.15744222243894
  36     -0.15085224131833
 Sym= A
 Ene=   -0.2648758312
 Spin= Alpha
 Occup=    1.00000
   1    -0.00042908653957022
   2    0.0018368204610737
   3     0.040844138787781
   4    0.0010239435538848
   5      0.57529059734074
   6    0.00017072304200028
   7    -0.00069661576826046
   8    -0.048590814002651
   9    0.0033586701076627
  10      0.46469564553416
  11    0.00066949928321426
  12    -0.002591684229045
  13     0.031661694477541
  14    -0.011361478485102
  15     -0.36663583380537
  16    0.0059852104603167
  17     0.021280987948304
  18    -0.021887705703954
  19    -0.0033612690695371
  20     0.015147515708089
  21     0.028174184930049
  22     0.016904732677894
  23     -0.13406893932838
  24    -0.0070522141424274
  25    -0.00062240857471321
  26    0.0023988887674823
  27     0.032346471339996
  28    0.0049284251994354
  29     -0.36600669112693
  30    0.0033289188407486
  31    -0.015023816293487
  32     0.026243344219423
  33      -0.0203153691684
  34     -0.13282220471044
  35    -0.0058988643686146
  36    0.0072317416853229
 Sym= A
 Ene=   -0.2370648651
 Spin= Alpha
 Occup=    1.00000
   1    -0.00019298360436586
   2    0.0011817294464936
   3    2.8686488788348e-05
   4    0.00073735696021894
   5    -0.0004855066027855
   6    -1.3729762063582e-05
   7    -0.00012979226414207
   8    3.3376378722727e-06
   9    -0.00061402842935858
  10    -0.00053370840100542
  11    0.00014860471771206
  12    -0.00069766666018089
  13     0.030887598330963
  14    -0.0037187743888826
  15     -0.40045588588013
  16    -0.00028776204909295
  17    -0.00062303597962417
  18    -0.00049658546521831
  19    -7.0259701455078e-05
  20    0.00049444614661409
  21     0.041774892323594
  22    -0.0042813646198279
  23     -0.53662572170836
  24    0.00034800205852396
  25    0.00015378189338024
  26    -0.00072061651511646
  27    -0.031009339139528
  28    0.0026819609531673
  29      0.40128378591023
  30    -8.5654000578716e-05
  31    0.00056473146125813
  32    -0.041812363936255
  33    0.0043775118340841
  34      0.53679186527075
  35    -0.00027470555192986
  36    0.00033244156816065
 Sym= A
 Ene=    0.1806037722
 Spin= Alpha
 Occup=    0.00000
   1    -0.00047216609703565
   2    0.0025433029334527
   3      0.03522630975495
   4    0.0017500278148155
   5      0.61803222604817
   6    5.6692078526477e-05
   7    -0.00016585255921606
   8     0.029243270499619
   9    -0.0031122840578141
  10     -0.34026563184757
  11    0.00069682579544476
  12    -0.0031703362928114
  13    -0.025871336989575
  14    -0.0011621542631635
  15      0.39115342078776
  16     0.003625171412473
  17    -0.013361497579399
  18     0.011511268812837
  19    -0.0032875005720104
  20     0.015797320042313
  21     0.043498331829525
  22     0.009595027413606
  23     -0.39502374000798
  24    -0.0050533135251565
  25    -0.00069550434025164
  26    0.0031628732801574
  27    -0.025489513600805
  28    0.0070074164275545
  29      0.39073568687793
  30     0.003308141301048
  31    -0.015896139752704
  32     0.042350805563086
  33    -0.017089031777921
  34     -0.39491687322906
  35    -0.0035789691432949
  36    0.0050543416619918
 Sym= A
 Ene=     0.380249899
 Spin= Alpha
 Occup=    0.00000
   1    0.00056525066335156
   2    -0.0037095860267914
   3    -0.00022831916618105
   4    -0.0020426730434819
   5    -0.00017780223561295
   6    0.00017597777025791
   7    -0.00086173639711591
   8    4.5411907803727e-05
   9    0.0015396179305895
  10    0.00055576892412788
  11    -7.3982374671303e-05
  12    0.00031296818351344
  13      0.05173185724043
  14    -0.0047820282936859
  15     -0.67582777707049
  16    -9.610071854204e-05
  17    0.0026435469405045
  18     0.002404953000727
  19    -7.7754953117562e-05
  20    0.00036643086176545
  21    -0.037849143857083
  22    0.0039651029761016
  23      0.49274520706031
  24    -8.5380614279202e-05
  25    -6.4083980889672e-05
  26    0.00025723508069475
  27    -0.051723234407923
  28    0.0060131131717386
  29      0.67628957822299
  30    -7.4829353533061e-05
  31    0.00034490815684761
  32     0.037890933119033
  33    -0.0039233425377591
  34     -0.49367157381468
  35    -0.00012346047067301
  36    -0.00013073896786858
 Sym= A
 Ene=     0.408796778
 Spin= Alpha
 Occup=    0.00000
   1    0.00034545930084474
   2    -0.0023370934204304
   3    -0.065381672696802
   4    -0.00032462075998791
   5     -0.50320614560526
   6    7.212453099113e-05
   7    -0.00055151767432786
   8     -0.09389491634257
   9    0.0074840165861155
  10      0.77152798542063
  11    -0.00036510631491722
  12    0.0020925640007791
  13    -0.033494927675223
  14    0.0068073596478982
  15      0.23123348043843
  16    -0.0013146738014447
  17     0.052788206690245
  18    -0.050411813157305
  19    0.0057199403548808
  20    -0.030223558516074
  21     0.014158850890195
  22    -0.021736719961339
  23     -0.49795254915071
  24     0.009622134989874
  25    0.00041593851777005
  26    -0.0023746034633745
  27    -0.033894466635031
  28    -0.0016328230281839
  29       0.2302376496793
  30    -0.0057594958284945
  31      0.03040593772329
  32     0.015421062871499
  33     0.016067886335936
  34      -0.4973145783768
  35    0.0014847424984336
  36    -0.009305459684613
 Sym= A
 Ene=    0.5577150853
 Spin= Alpha
 Occup=    0.00000
   1    -0.025424738050414
   2      0.15981126605349
   3    -0.026299532312465
   4     -0.10721156146709
   5    0.0044127510428752
   6    -0.012983191374039
   7     0.049201819770111
   8    -0.041813278930835
   9     -0.19444579134334
  10    -0.0050568830381904
  11     0.050163221581987